# vtk DataFile Version 3.0
vtk output
ASCII
DATASET UNSTRUCTURED_GRID
POINTS 12343 float
-5.000000e+02	0.000000e+00	0.0	-5.000000e+01	-1.500000e+02	0.0	-5.000000e+01	0.000000e+00	0.0	-5.000000e+01	1.500000e+02	0.0	-4.997533e+02	1.570538e+01	0.0	-4.990134e+02	3.139526e+01	0.0	-4.977810e+02	4.705416e+01	0.0	-4.960574e+02	6.266662e+01	0.0	-4.938442e+02	7.821723e+01	0.0	-4.911436e+02	9.369066e+01	0.0	-4.879584e+02	1.090716e+02	0.0	-4.842916e+02	1.243449e+02	0.0	-4.801468e+02	1.394956e+02	0.0	-4.755283e+02	1.545085e+02	0.0	-4.704404e+02	1.693690e+02	0.0	-4.648882e+02	1.840623e+02	0.0	-4.588773e+02	1.985739e+02	0.0	-4.524135e+02	2.128896e+02	0.0	-4.455033e+02	2.269952e+02	0.0	-4.381533e+02	2.408768e+02	0.0	-4.303710e+02	2.545207e+02	0.0	-4.221640e+02	2.679134e+02	0.0	-4.135403e+02	2.810417e+02	0.0	-4.045085e+02	2.938926e+02	0.0	-3.950775e+02	3.064535e+02	0.0	-3.852566e+02	3.187120e+02	0.0	-3.750555e+02	3.306559e+02	0.0	-3.644843e+02	3.422736e+02	0.0	-3.535534e+02	3.535534e+02	0.0	-3.422736e+02	3.644843e+02	0.0	-3.306559e+02	3.750555e+02	0.0	-3.187120e+02	3.852566e+02	0.0	-3.064535e+02	3.950775e+02	0.0	-2.938926e+02	4.045085e+02	0.0	-2.810417e+02	4.135403e+02	0.0	-2.679134e+02	4.221640e+02	0.0	-2.545207e+02	4.303710e+02	0.0	-2.408768e+02	4.381533e+02	0.0	-2.269952e+02	4.455033e+02	0.0	-2.128896e+02	4.524135e+02	0.0	-1.985739e+02	4.588773e+02	0.0	-1.840623e+02	4.648882e+02	0.0	-1.693690e+02	4.704404e+02	0.0	-1.545085e+02	4.755283e+02	0.0	-1.394956e+02	4.801468e+02	0.0	-1.243449e+02	4.842916e+02	0.0	-1.090716e+02	4.879584e+02	0.0	-9.369066e+01	4.911436e+02	0.0	-7.821723e+01	4.938442e+02	0.0	-6.266662e+01	4.960574e+02	0.0	-4.705416e+01	4.977810e+02	0.0	-3.139526e+01	4.990134e+02	0.0	-1.570538e+01	4.997533e+02	0.0	6.355176e-13	5.000000e+02	0.0	1.570538e+01	4.997533e+02	0.0	3.139526e+01	4.990134e+02	0.0	4.705416e+01	4.977810e+02	0.0	6.266662e+01	4.960574e+02	0.0	7.821723e+01	4.938442e+02	0.0	9.369066e+01	4.911436e+02	0.0	1.090716e+02	4.879584e+02	0.0	1.243449e+02	4.842916e+02	0.0	1.394956e+02	4.801468e+02	0.0	1.545085e+02	4.755283e+02	0.0	1.693690e+02	4.704404e+02	0.0	1.840623e+02	4.648882e+02	0.0	1.985739e+02	4.588773e+02	0.0	2.128896e+02	4.524135e+02	0.0	2.269952e+02	4.455033e+02	0.0	2.408768e+02	4.381533e+02	0.0	2.545207e+02	4.303710e+02	0.0	2.679134e+02	4.221640e+02	0.0	2.810417e+02	4.135403e+02	0.0	2.938926e+02	4.045085e+02	0.0	3.064535e+02	3.950775e+02	0.0	3.187120e+02	3.852566e+02	0.0	3.306559e+02	3.750555e+02	0.0	3.422736e+02	3.644843e+02	0.0	3.535534e+02	3.535534e+02	0.0	3.644843e+02	3.422736e+02	0.0	3.750555e+02	3.306559e+02	0.0	3.852566e+02	3.187120e+02	0.0	3.950775e+02	3.064535e+02	0.0	4.045085e+02	2.938926e+02	0.0	4.135403e+02	2.810417e+02	0.0	4.221640e+02	2.679134e+02	0.0	4.303710e+02	2.545207e+02	0.0	4.381533e+02	2.408768e+02	0.0	4.455033e+02	2.269952e+02	0.0	4.524135e+02	2.128896e+02	0.0	4.588773e+02	1.985739e+02	0.0	4.648882e+02	1.840623e+02	0.0	4.704404e+02	1.693690e+02	0.0	4.755283e+02	1.545085e+02	0.0	4.801468e+02	1.394956e+02	0.0	4.842916e+02	1.243449e+02	0.0	4.879584e+02	1.090716e+02	0.0	4.911436e+02	9.369066e+01	0.0	4.938442e+02	7.821723e+01	0.0	4.960574e+02	6.266662e+01	0.0	4.977810e+02	4.705416e+01	0.0	4.990134e+02	3.139526e+01	0.0	4.997533e+02	1.570538e+01	0.0	5.000000e+02	2.281678e-12	0.0	4.997533e+02	-1.570538e+01	0.0	4.990134e+02	-3.139526e+01	0.0	4.977810e+02	-4.705416e+01	0.0	4.960574e+02	-6.266662e+01	0.0	4.938442e+02	-7.821723e+01	0.0	4.911436e+02	-9.369066e+01	0.0	4.879584e+02	-1.090716e+02	0.0	4.842916e+02	-1.243449e+02	0.0	4.801468e+02	-1.394956e+02	0.0	4.755283e+02	-1.545085e+02	0.0	4.704404e+02	-1.693690e+02	0.0	4.648882e+02	-1.840623e+02	0.0	4.588773e+02	-1.985739e+02	0.0	4.524135e+02	-2.128896e+02	0.0	4.455033e+02	-2.269952e+02	0.0	4.381533e+02	-2.408768e+02	0.0	4.303710e+02	-2.545207e+02	0.0	4.221640e+02	-2.679134e+02	0.0	4.135403e+02	-2.810417e+02	0.0	4.045085e+02	-2.938926e+02	0.0	3.950775e+02	-3.064535e+02	0.0	3.852566e+02	-3.187120e+02	0.0	3.750555e+02	-3.306559e+02	0.0	3.644843e+02	-3.422736e+02	0.0	3.535534e+02	-3.535534e+02	0.0	3.422736e+02	-3.644843e+02	0.0	3.306559e+02	-3.750555e+02	0.0	3.187120e+02	-3.852566e+02	0.0	3.064535e+02	-3.950775e+02	0.0	2.938926e+02	-4.045085e+02	0.0	2.810417e+02	-4.135403e+02	0.0	2.679134e+02	-4.221640e+02	0.0	2.545207e+02	-4.303710e+02	0.0	2.408768e+02	-4.381533e+02	0.0	2.269952e+02	-4.455033e+02	0.0	2.128896e+02	-4.524135e+02	0.0	1.985739e+02	-4.588773e+02	0.0	1.840623e+02	-4.648882e+02	0.0	1.693690e+02	-4.704404e+02	0.0	1.545085e+02	-4.755283e+02	0.0	1.394956e+02	-4.801468e+02	0.0	1.243449e+02	-4.842916e+02	0.0	1.090716e+02	-4.879584e+02	0.0	9.369066e+01	-4.911436e+02	0.0	7.821723e+01	-4.938442e+02	0.0	6.266662e+01	-4.960574e+02	0.0	4.705416e+01	-4.977810e+02	0.0	3.139526e+01	-4.990134e+02	0.0	1.570538e+01	-4.997533e+02	0.0	6.753187e-12	-5.000000e+02	0.0	-1.570538e+01	-4.997533e+02	0.0	-3.139526e+01	-4.990134e+02	0.0	-4.705416e+01	-4.977810e+02	0.0	-6.266662e+01	-4.960574e+02	0.0	-7.821723e+01	-4.938442e+02	0.0	-9.369066e+01	-4.911436e+02	0.0	-1.090716e+02	-4.879584e+02	0.0	-1.243449e+02	-4.842916e+02	0.0	-1.394956e+02	-4.801468e+02	0.0	-1.545085e+02	-4.755283e+02	0.0	-1.693690e+02	-4.704404e+02	0.0	-1.840623e+02	-4.648882e+02	0.0	-1.985739e+02	-4.588773e+02	0.0	-2.128896e+02	-4.524135e+02	0.0	-2.269952e+02	-4.455033e+02	0.0	-2.408768e+02	-4.381533e+02	0.0	-2.545207e+02	-4.303710e+02	0.0	-2.679134e+02	-4.221640e+02	0.0	-2.810417e+02	-4.135403e+02	0.0	-2.938926e+02	-4.045085e+02	0.0	-3.064535e+02	-3.950775e+02	0.0	-3.187120e+02	-3.852566e+02	0.0	-3.306559e+02	-3.750555e+02	0.0	-3.422736e+02	-3.644843e+02	0.0	-3.535534e+02	-3.535534e+02	0.0	-3.644843e+02	-3.422736e+02	0.0	-3.750555e+02	-3.306559e+02	0.0	-3.852566e+02	-3.187120e+02	0.0	-3.950775e+02	-3.064535e+02	0.0	-4.045085e+02	-2.938926e+02	0.0	-4.135403e+02	-2.810417e+02	0.0	-4.221640e+02	-2.679134e+02	0.0	-4.303710e+02	-2.545207e+02	0.0	-4.381533e+02	-2.408768e+02	0.0	-4.455033e+02	-2.269952e+02	0.0	-4.524135e+02	-2.128896e+02	0.0	-4.588773e+02	-1.985739e+02	0.0	-4.648882e+02	-1.840623e+02	0.0	-4.704404e+02	-1.693690e+02	0.0	-4.755283e+02	-1.545085e+02	0.0	-4.801468e+02	-1.394956e+02	0.0	-4.842916e+02	-1.243449e+02	0.0	-4.879584e+02	-1.090716e+02	0.0	-4.911436e+02	-9.369066e+01	0.0	-4.938442e+02	-7.821723e+01	0.0	-4.960574e+02	-6.266662e+01	0.0	-4.977810e+02	-4.705416e+01	0.0	-4.990134e+02	-3.139526e+01	0.0	-4.997533e+02	-1.570538e+01	0.0	-4.999605e+01	-1.493717e+02	0.0	-4.998421e+01	-1.487435e+02	0.0	-4.996447e+01	-1.481155e+02	0.0	-4.993685e+01	-1.474878e+02	0.0	-4.990134e+01	-1.468605e+02	0.0	-4.985795e+01	-1.462337e+02	0.0	-4.980668e+01	-1.456074e+02	0.0	-4.974755e+01	-1.449819e+02	0.0	-4.968057e+01	-1.443572e+02	0.0	-4.960574e+01	-1.437333e+02	0.0	-4.952307e+01	-1.431105e+02	0.0	-4.943259e+01	-1.424887e+02	0.0	-4.933430e+01	-1.418681e+02	0.0	-4.922822e+01	-1.412488e+02	0.0	-4.911436e+01	-1.406309e+02	0.0	-4.899275e+01	-1.400145e+02	0.0	-4.886341e+01	-1.393996e+02	0.0	-4.872634e+01	-1.387865e+02	0.0	-4.858159e+01	-1.381751e+02	0.0	-4.842916e+01	-1.375655e+02	0.0	-4.826908e+01	-1.369579e+02	0.0	-4.810138e+01	-1.363524e+02	0.0	-4.792609e+01	-1.357490e+02	0.0	-4.774323e+01	-1.351479e+02	0.0	-4.755283e+01	-1.345492e+02	0.0	-4.735492e+01	-1.339528e+02	0.0	-4.714953e+01	-1.333590e+02	0.0	-4.693669e+01	-1.327679e+02	0.0	-4.671645e+01	-1.321794e+02	0.0	-4.648882e+01	-1.315938e+02	0.0	-4.625386e+01	-1.310110e+02	0.0	-4.601159e+01	-1.304313e+02	0.0	-4.576206e+01	-1.298547e+02	0.0	-4.550530e+01	-1.292812e+02	0.0	-4.524135e+01	-1.287110e+02	0.0	-4.497026e+01	-1.281442e+02	0.0	-4.469207e+01	-1.275808e+02	0.0	-4.440682e+01	-1.270210e+02	0.0	-4.411456e+01	-1.264648e+02	0.0	-4.381533e+01	-1.259123e+02	0.0	-4.350919e+01	-1.253636e+02	0.0	-4.319617e+01	-1.248188e+02	0.0	-4.287633e+01	-1.242780e+02	0.0	-4.254972e+01	-1.237413e+02	0.0	-4.221640e+01	-1.232087e+02	0.0	-4.187640e+01	-1.226803e+02	0.0	-4.152979e+01	-1.221562e+02	0.0	-4.117663e+01	-1.216366e+02	0.0	-4.081696e+01	-1.211214e+02	0.0	-4.045085e+01	-1.206107e+02	0.0	-4.007835e+01	-1.201048e+02	0.0	-3.969952e+01	-1.196035e+02	0.0	-3.931442e+01	-1.191070e+02	0.0	-3.892312e+01	-1.186154e+02	0.0	-3.852566e+01	-1.181288e+02	0.0	-3.812213e+01	-1.176472e+02	0.0	-3.771257e+01	-1.171707e+02	0.0	-3.729706e+01	-1.166994e+02	0.0	-3.687566e+01	-1.162334e+02	0.0	-3.644843e+01	-1.157726e+02	0.0	-3.601545e+01	-1.153173e+02	0.0	-3.557678e+01	-1.148675e+02	0.0	-3.513250e+01	-1.144232e+02	0.0	-3.468267e+01	-1.139845e+02	0.0	-3.422736e+01	-1.135516e+02	0.0	-3.376664e+01	-1.131243e+02	0.0	-3.330059e+01	-1.127029e+02	0.0	-3.282929e+01	-1.122874e+02	0.0	-3.235280e+01	-1.118779e+02	0.0	-3.187120e+01	-1.114743e+02	0.0	-3.138457e+01	-1.110769e+02	0.0	-3.089298e+01	-1.106856e+02	0.0	-3.039651e+01	-1.103005e+02	0.0	-2.989525e+01	-1.099217e+02	0.0	-2.938926e+01	-1.095492e+02	0.0	-2.887864e+01	-1.091830e+02	0.0	-2.836345e+01	-1.088234e+02	0.0	-2.784378e+01	-1.084702e+02	0.0	-2.731972e+01	-1.081236e+02	0.0	-2.679134e+01	-1.077836e+02	0.0	-2.625873e+01	-1.074503e+02	0.0	-2.572198e+01	-1.071237e+02	0.0	-2.518116e+01	-1.068038e+02	0.0	-2.463637e+01	-1.064908e+02	0.0	-2.408768e+01	-1.061847e+02	0.0	-2.353520e+01	-1.058854e+02	0.0	-2.297899e+01	-1.055932e+02	0.0	-2.241916e+01	-1.053079e+02	0.0	-2.185579e+01	-1.050297e+02	0.0	-2.128896e+01	-1.047586e+02	0.0	-2.071878e+01	-1.044947e+02	0.0	-2.014532e+01	-1.042379e+02	0.0	-1.956868e+01	-1.039884e+02	0.0	-1.898895e+01	-1.037461e+02	0.0	-1.840623e+01	-1.035112e+02	0.0	-1.782059e+01	-1.032836e+02	0.0	-1.723215e+01	-1.030633e+02	0.0	-1.664098e+01	-1.028505e+02	0.0	-1.604718e+01	-1.026451e+02	0.0	-1.545085e+01	-1.024472e+02	0.0	-1.485208e+01	-1.022568e+02	0.0	-1.425096e+01	-1.020739e+02	0.0	-1.364760e+01	-1.018986e+02	0.0	-1.304208e+01	-1.017309e+02	0.0	-1.243449e+01	-1.015708e+02	0.0	-1.182495e+01	-1.014184e+02	0.0	-1.121354e+01	-1.012737e+02	0.0	-1.060036e+01	-1.011366e+02	0.0	-9.985499e+00	-1.010072e+02	0.0	-9.369066e+00	-1.008856e+02	0.0	-8.751153e+00	-1.007718e+02	0.0	-8.131858e+00	-1.006657e+02	0.0	-7.511279e+00	-1.005674e+02	0.
[...]
POINT_DATA 12343

SCALARS Conservative_1 float 1
LOOKUP_TABLE default
1.867140e-01	5.623318e-01	6.295970e-01	5.503449e-01	1.866626e-01	1.865103e-01	1.862556e-01	1.858908e-01	1.854218e-01	1.848435e-01	1.841389e-01	1.833218e-01	1.823927e-01	1.813540e-01	1.802010e-01	1.789224e-01	1.775101e-01	1.759564e-01	1.742625e-01	1.724279e-01	1.704513e-01	1.683272e-01	1.660384e-01	1.635824e-01	1.609559e-01	1.581476e-01	1.551553e-01	1.519705e-01	1.485809e-01	1.449657e-01	1.411729e-01	1.373668e-01	1.335611e-01	1.295411e-01	1.253149e-01	1.209085e-01	1.163278e-01	1.116268e-01	1.068198e-01	1.019590e-01	9.704048e-02	9.213250e-02	8.727070e-02	8.252490e-02	7.794252e-02	7.359310e-02	6.957489e-02	6.598594e-02	6.289476e-02	6.027518e-02	5.765426e-02	5.256396e-02	4.777155e-02	4.335562e-02	3.934613e-02	3.553569e-02	3.203738e-02	2.880534e-02	2.580587e-02	2.303724e-02	2.049158e-02	1.814757e-02	1.597615e-02	1.398574e-02	1.218204e-02	1.060366e-02	9.217300e-03	7.915602e-03	6.437920e-03	4.785665e-03	3.260434e-03	1.863739e-03	5.912053e-04	-5.566806e-04	-1.620293e-03	-2.607050e-03	-3.541696e-03	-4.447054e-03	-5.421801e-03	-6.559333e-03	-7.932638e-03	-9.554927e-03	-1.146452e-02	-1.375939e-02	-1.647052e-02	-1.959806e-02	-2.314559e-02	-2.705555e-02	-3.114109e-02	-3.515541e-02	-3.880379e-02	-4.175066e-02	-4.379227e-02	-4.489921e-02	-4.482667e-02	-4.363045e-02	-4.195586e-02	-4.060623e-02	-4.001440e-02	-4.028444e-02	-4.121805e-02	-4.237463e-02	-4.321652e-02	-4.341438e-02	-4.295849e-02	-4.201747e-02	-4.104736e-02	-4.049044e-02	-4.060737e-02	-4.147023e-02	-4.291830e-02	-4.449426e-02	-4.544915e-02	-4.523739e-02	-4.396553e-02	-4.182499e-02	-3.877964e-02	-3.504996e-02	-3.099313e-02	-2.691371e-02	-2.303277e-02	-1.958156e-02	-1.656458e-02	-1.392895e-02	-1.167306e-02	-9.782052e-03	-8.228358e-03	-6.921286e-03	-5.760726e-03	-4.729101e-03	-3.775805e-03	-2.876654e-03	-1.980919e-03	-1.005006e-03	1.031468e-04	1.391238e-03	2.797845e-03	4.358774e-03	6.020293e-03	7.616726e-03	9.044914e-03	1.055296e-02	1.220077e-02	1.399397e-02	1.595459e-02	1.808236e-02	2.041166e-02	2.298801e-02	2.579951e-02	2.881993e-02	3.205064e-02	3.552894e-02	3.929148e-02	4.337213e-02	4.778857e-02	5.253952e-02	5.759798e-02	6.018225e-02	6.278468e-02	6.586701e-02	6.945960e-02	7.347023e-02	7.782315e-02	8.241301e-02	8.714368e-02	9.198863e-02	9.687848e-02	1.017784e-01	1.066411e-01	1.114371e-01	1.161396e-01	1.207125e-01	1.251267e-01	1.293484e-01	1.333523e-01	1.371552e-01	1.409536e-01	1.447541e-01	1.484040e-01	1.518567e-01	1.551127e-01	1.581657e-01	1.610134e-01	1.636604e-01	1.661139e-01	1.683885e-01	1.704966e-01	1.724526e-01	1.742634e-01	1.759401e-01	1.774952e-01	1.789254e-01	1.802264e-01	1.813976e-01	1.824484e-01	1.833817e-01	1.841977e-01	1.849035e-01	1.854853e-01	1.859435e-01	1.862922e-01	1.865309e-01	1.866696e-01	5.681169e-01	5.749972e-01	5.808293e-01	5.859995e-01	5.913043e-01	5.968036e-01	6.016707e-01	6.057723e-01	6.086289e-01	6.108185e-01	6.131543e-01	6.152792e-01	6.173363e-01	6.190743e-01	6.204582e-01	6.214691e-01	6.223039e-01	6.228926e-01	6.232081e-01	6.234947e-01	6.235625e-01	6.233482e-01	6.228200e-01	6.222022e-01	6.215676e-01	6.208270e-01	6.197351e-01	6.184373e-01	6.169026e-01	6.151800e-01	6.132488e-01	6.115341e-01	6.093644e-01	6.071666e-01	6.051005e-01	6.025921e-01	5.998023e-01	5.967441e-01	5.935145e-01	5.904765e-01	5.880152e-01	5.839224e-01	5.796315e-01	5.763707e-01	5.725559e-01	5.680996e-01	5.626747e-01	5.573443e-01	5.531993e-01	5.472516e-01	5.417090e-01	5.362541e-01	5.299940e-01	5.223472e-01	5.145184e-01	5.062581e-01	4.971701e-01	4.873283e-01	4.794484e-01	4.718352e-01	4.654606e-01	4.566861e-01	4.465403e-01	4.361668e-01	4.251970e-01	4.136387e-01	4.004002e-01	3.870002e-01	3.766212e-01	3.667681e-01	3.558206e-01	3.409850e-01	3.233432e-01	3.073764e-01	2.889823e-01	2.721609e-01	2.602610e-01	2.444253e-01	2.244651e-01	2.077532e-01	1.910620e-01	1.734966e-01	1.570837e-01	1.452110e-01	1.257887e-01	1.003071e-01	7.946537e-02	6.018132e-02	3.706085e-02	1.247864e-02	-9.700515e-03	-2.394586e-02	-3.216053e-02	-5.085776e-02	-7.486344e-02	-9.816730e-02	-1.193322e-01	-1.430738e-01	-1.618414e-01	-1.768450e-01	-1.928730e-01	-2.179367e-01	-2.397166e-01	-2.573820e-01	-2.759726e-01	-2.920978e-01	-3.148661e-01	-3.400335e-01	-3.571218e-01	-3.664812e-01	-3.863893e-01	-4.128054e-01	-4.293906e-01	-4.373981e-01	-4.541751e-01	-4.789630e-01	-4.976533e-01	-5.074961e-01	-5.171296e-01	-5.287792e-01	-5.338206e-01	-5.368587e-01	-5.464000e-01	-5.627318e-01	-5.718100e-01	-5.768458e-01	-5.847628e-01	-5.937857e-01	-6.028257e-01	-6.078325e-01	-6.117563e-01	-6.154832e-01	-6.164510e-01	-6.148303e-01	-6.172920e-01	-6.253777e-01	-6.193718e-01	-6.063968e-01	-5.977693e-01	-5.942272e-01	-5.891205e-01	-5.844348e-01	-5.803482e-01	-5.726909e-01	-5.607494e-01	-5.514632e-01	-5.430386e-01	-5.340037e-01	-5.247242e-01	-5.124721e-01	-5.006115e-01	-4.890199e-01	-4.757590e-01	-4.636849e-01	-4.544078e-01	-4.453884e-01	-4.348668e-01	-4.236630e-01	-4.159904e-01	-4.111615e-01	-4.045014e-01	-3.964758e-01	-3.896266e-01	-3.830759e-01	-3.769877e-01	-3.714614e-01	-3.688697e-01	-3.667821e-01	-3.640594e-01	-3.613588e-01	-3.590851e-01	-3.568672e-01	-3.546834e-01	-3.524628e-01	-3.500692e-01	-3.477577e-01	-3.454468e-01	-3.432084e-01	-3.411417e-01	-3.387641e-01	-3.364666e-01	-3.348569e-01	-3.336354e-01	-3.324327e-01	-3.314318e-01	-3.305128e-01	-3.296164e-01	-3.288742e-01	-3.280771e-01	-3.270142e-01	-3.261317e-01	-3.253410e-01	-3.243649e-01	-3.234137e-01	-3.223016e-01	-3.217038e-01	-3.208542e-01	-3.199813e-01	-3.191530e-01	-3.187343e-01	-3.179479e-01	-3.173717e-01	-3.165077e-01	-3.157808e-01	-3.150527e-01	-3.145509e-01	-3.137643e-01	-3.131120e-01	-3.125477e-01	-3.123549e-01	-3.116231e-01	-3.110728e-01	-3.106871e-01	-3.098792e-01	-3.093161e-01	-3.088816e-01	-3.078342e-01	-3.068855e-01	-3.061023e-01	-3.055399e-01	-3.046194e-01	-3.039531e-01	-3.028981e-01	-3.018736e-01	-3.007786e-01	-2.998898e-01	-2.987619e-01	-2.979253e-01	-2.969815e-01	-2.959720e-01	-2.948724e-01	-2.938216e-01	-2.931827e-01	-2.921483e-01	-2.910133e-01	-2.898491e-01	-2.889155e-01	-2.878808e-01	-2.867191e-01	-2.856570e-01	-2.848489e-01	-2.840372e-01	-2.831292e-01	-2.823472e-01	-2.816792e-01	-2.810847e-01	-2.804783e-01	-2.798359e-01	-2.793676e-01	-2.788625e-01	-2.785189e-01	-2.782724e-01	-2.781264e-01	-2.779823e-01	-2.779274e-01	-2.779948e-01	-2.781419e-01	-2.782723e-01	-2.784274e-01	-2.786224e-01	-2.789118e-01	-2.792367e-01	-2.796096e-01	-2.800705e-01	-2.806557e-01	-2.813216e-01	-2.818987e-01	-2.825880e-01	-2.833469e-01	-2.841191e-01	-2.848704e-01	-2.857709e-01	-2.866980e-01	-2.876902e-01	-2.887155e-01	-2.897142e-01	-2.904783e-01	-2.914977e-01	-2.924928e-01	-2.935438e-01	-2.944293e-01	-2.955053e-01	-2.966857e-01	-2.977655e-01	-2.986542e-01	-2.999294e-01	-3.010461e-01	-3.018103e-01	-3.026827e-01	-3.037351e-01	-3.044422e-01	-3.051869e-01	-3.060027e-01	-3.066990e-01	-3.074514e-01	-3.080185e-01	-3.087879e-01	-3.093769e-01	-3.099484e-01	-3.104623e-01	-3.111302e-01	-3.118160e-01	-3.121133e-01	-3.123598e-01	-3.123786e-01	-3.125274e-01	-3.126359e-01	-3.129107e-01	-3.132557e-01	-3.138043e-01	-3.141129e-01	-3.142377e-01	-3.142232e-01	-3.143884e-01	-3.145607e-01	-3.146693e-01	-3.147368e-01	-3.147734e-01	-3.148444e-01	-3.150722e-01	-3.152944e-01	-3.155204e-01	-3.158369e-01	-3.163803e-01	-3.167704e-01	-3.169901e-01	-3.175967e-01	-3.179980e-01	-3.185638e-01	-3.193980e-01	-3.203245e-01	-3.210127e-01	-3.217596e-01	-3.227239e-01	-3.236028e-01	-3.243023e-01	-3.251156e-01	-3.260365e-01	-3.268202e-01	-3.279974e-01	-3.292058e-01	-3.302054e-01	-3.314324e-01	-3.325645e-01	-3.337184e-01	-3.349380e-01	-3.365300e-01	-3.382092e-01	-3.402106e-01	-3.422354e-01	-3.447484e-01	-3.475002e-01	-3.501785e-01	-3.523857e-01	-3.543255e-01	-3.565243e-01	-3.591837e-01	-3.618772e-01	-3.648062e-01	-3.693352e-01	-3.746912e-01	-3.786330e-01	-3.827135e-01	-3.868494e-01	-3.911072e-01	-3.958839e-01	-4.009904e-01	-4.068409e-01	-4.135798e-01	-4.205930e-01	-4.279871e-01	-4.358672e-01	-4.436746e-01	-4.503992e-01	-4.573444e-01	-4.638301e-01	-4.706095e-01	-4.776100e-01	-4.851216e-01	-4.933121e-01	-5.014524e-01	-5.082056e-01	-5.128683e-01	-5.164426e-01	-5.199382e-01	-5.258324e-01	-5.310868e-01	-5.356234e-01	-5.393999e-01	-5.445749e-01	-5.486802e-01	-5.498891e-01	-5.519999e-01	-5.556819e-01	-5.578452e-01	-5.594138e-01	-5.606272e-01	-5.588218e-01	-5.547856e-01	-5.501298e-01	-5.512287e-01	-5.527746e-01	-5.530676e-01	-5.537729e-01	-5.509470e-01	-5.444151e-01	-5.391443e-01	-5.367208e-01	-5.356196e-01	-5.255466e-01	-5.149761e-01	-5.113654e-01	-5.107781e-01	-5.102997e-01	-4.999320e-01	-4.839885e-01	-4.739380e-01	-4.701552e-01	-4.662388e-01	-4.579273e-01	-4.471616e-01	-4.385587e-01	-4.317992e-01	-4.280919e-01	-4.184094e-01	-4.010457e-01	-3.899035e-01	-3.727014e-01	-3.583006e-01	-3.516368e-01	-3.467649e-01	-3.425776e-01	-3.323515e-01	-3.180292e-01	-3.022619e-01	-2.853789e-01	-2.695387e-01	-2.572400e-01	-2.493655e-01	-2.416465e-01	-2.277126e-01	-2.075650e-01	-1.841618e-01	-1.607992e-01	-1.475907e-01	-1.394320e-01	-1.295408e-01	-1.131853e-01	-9.477926e-02	-8.382762e-02	-7.010687e-02	-5.573190e-02	-3.682150e-02	-1.961098e-02	-3.914533e-03	7.219176e-03	1.888181e-02	4.082485e-02	5.849942e-02	7.323929e-02	8.609885e-02	9.695125e-02	1.064660e-01	1.185538e-01	1.346417e-01	1.511873e-01	1.709479e-01	1.898763e-01	2.031106e-01	2.173757e-01	2.281792e-01	2.402184e-01	2.530233e-01	2.680062e-01	2.850727e-01	3.022956e-01	3.141510e-01	3.286939e-01	3.418346e-01	3.530547e-01	3.650342e-01	3.761415e-01	3.872209e-01	4.006411e-01	4.125675e-01	4.261514e-01	4.395058e-01	4.506329e-01	4.600755e-01	4.709427e-01	4.808687e-01	4.907230e-01	5.008186e-01	5.101047e-01	5.201935e-01	5.297566e-01	5.380119e-01	5.470208e-01	5.546504e-01	6.299252e-01	6.301069e-01	6.302814e-01	6.304163e-01	6.302661e-01	6.297412e-01	6.287918e-01	6.275926e-01	6.257354e-01	6.237738e-01	6.217897e-01	6.198242e-01	6.174188e-01	6.142797e-01	6.111061e-01	6.078205e-01	6.042834e-01	6.012275e-01	5.978973e-01	5.935627e-01	5.889493e-01	5.842118e-01	5.787690e-01	5.742196e-01	5.693038e-01	5.641195e-01	5.580986e-01	5.525942e-01	5.463132e-01	5.401173e-01	5.336931e-01	5.270316e-01	5.200788e-01	5.134493e-01	5.081497e-01	5.012812e-01	4.939587e-01	4.860193e-01	4.779196e-01	4.702448e-01	4.629506e-01	4.548081e-01	4.455344e-01	4.383932e-01	4.285774e-01	4.183259e-01	4.093248e-01	4.021349e-01	3.935150e-01	3.839061e-01	3.760228e-01	3.677313e-01	3.567089e-01	3.440019e-01	3.321495e-01	3.187036e-01	3.061888e-01	2.937517e-01	2.817651e-01	2.720231e-01	2.632503e-01	2.444051e-01	2.214148e-01	2.063728e-01	2.012024e-01	1.910558e-01	1.804954e-01	1.699438e-01	1.603961e-01	1.485050e-01	1.357715e-01	1.244877e-01	1.086218e-01	8.983168e-02	7.425601e-02	6.168015e-02	4.909486e-02	3.107739e-02	1.199727e-02	-2.532913e-03	-1.475996e-02	-3.004973e-02	-4.722626e-02	-6.305506e-02	-7.671739e-02	-9.154769e-02	-1.052055e-01	-1.169167e-01	-1.365902e-01	-1.583048e-01	-1.772672e-01	-1.951357e-01	-2.059036e-01	-2.158595e-01	-2.299574e-01	-2.500432e-01	-2.688414e-01	-2.927638e-01	-3.110994e-01	-3.314336e-01	-3.486757e-01	-3.650591e-01	-3.788248e-01	-3.935921e-01	-4.096156e-01	-4.227219e-01	-4.360366e-01	-4.491897e-01	-4.584222e-01	-4.693215e-01	-4.908926e-01	-5.109112e-01	-5.237446e-01	-5.320248e-01	-5.411447e-01	-5.493956e-01	-5.560905e-01	-5.596055e-01	-5.620139e-01	-5.676642e-01	-5.738902e-01	-5.832613e-01	-5.937453e-01	-6.035138e-01	-6.122855e-01	-6.259453e-01	-6.441866e-01	-6.595760e-01	-6.630626e-01	-6.625126e-01	-6.631443e-01	-6.596663e-01	-6.566428e-01	-6.549679e-01	-6.531574e-01	-6.542969e-01	-6.546083e-01	-6.501658e-01	-6.446201e-01	-6.396912e-01	-6.354205e-01	-6.278505e-01	-6.177544e-01	-6.088815e-01	-6.012223e-01	-5.931297e-01	-5.871795e-01	-5.785939e-01	-5.735378e-01	-5.665582e-01	-5.553996e-01	-5.426341e-01	-5.310817e-01	-5.209866e-01	-5.131174e-01	-5.065481e-01	-5.023741e-01	-4.969854e-01	-4.879215e-01	-4.783426e-01	-4.700973e-01	-4.634728e-01	-4.584846e-01	-4.529662e-01	-4.468222e-01	-4.421425e-01	-4.387575e-01	-4.352535e-01	-4.315702e-01	-4.291545e-01	-4.266070e-01	-4.229615e-01	-4.194455e-01	-4.161645e-01	-4.129364e-01	-4.103100e-01	-4.076749e-01	-4.052490e-01	-4.022452e-01	-3.998432e-01	-3.977658e-01	-3.963569e-01	-3.949055e-01	-3.937616e-01	-3.925097e-01	-3.916794e-01	-3.907089e-01	-3.903320e-01	-3.897554e-01	-3.890320e-01	-3.884401e-01	-3.880989e-01	-3.875967e-01	-3.871980e-01	-3.866853e-01	-3.862646e-01	-3.858444e-01	-3.855841e-01	-3.852931e-01	-3.850871e-01	-3.845034e-01	-3.841901e-01	-3.836615e-01	-3.832959e-01	-3.831210e-01	-3.822858e-01	-3.815996e-01	-3.813129e-01	-3.804684e-01	-3.796873e-01	-3.789000e-01	-3.780307e-01	-3.772122e-01	-3.761222e-01	-3.748682e-01	-3.740854e-01	-3.729918e-01	-3.716956e-01	-3.701914e-01	-3.690127e-01	-3.675893e-01	-3.660219e-01	-3.649471e-01	-3.639196e-01	-3.623690e-01	-3.609926e-01	-3.596046e-01	-3.585113e-01	-3.569952e-01	-3.557306e-01	-3.546225e-01	-3.533991e-01	-3.525207e-01	-3.516592e-01	-3.507178e-01	-3.495984e-01	-3.487931e-01	-3.482316e-01	-3.477321e-01	-3.472508e-01	-3.469483e-01	-3.468050e-01	-3.468249e-01	-3.468505e-01	-3.469572e-01	-3.472688e-01	-3.477460e-01	-3.482142e-01	-3.487530e-01	-3.494528e-01	-3.502189e-01	-3.510582e-01	-3.520955e-01	-3.531343e-01	-3.541593e-01	-3.555048e-01	-3.567595e-01	-3.577969e-01	-3.589331e-01	-3.601529e-01	-3.616911e-01	-3.631274e-01	-3.646054e-01	-3.661996e-01	-3.677700e-01	-3.690152e-01	-3.701266e-01	-3.711997e-01	-3.726910e-01	-3.740524e-01	-3.754234e-01	-3.766352e-01	-3.772558e-01	-3.782909e-01	-3.795124e-01	-3.806362e-01	-3.809861e-01	-3.819448e-01	-3.831690e-01	-3.841250e-01	-3.845835e-01	-3.853283e-01	-3.859643e-01	-3.865894e-01	-3.867853e-01	-3.872217e-01	-3.878111e-01	-3.881118e-01	-3.881881e-01	-3.883967e-01	-3.884993e-01	-3.884953e-01	-3.886031e-01	-3.887966e-01	-3.888347e-01	-3.885920e-01	-3.888311e-01	-3.892256e-01	-3.895517e-01	-3.898138e-01	-3.900750e-01	-3.905770e-01	-3.909296e-01	-3.914163e-01	-3.920144e-01	-3.924158e-01	-3.926681e-01	-3.934020e-01	-3.941102e-01	-3.950797e-01	-3.961761e-01	-3.973787e-01	-3.986038e-01	-3.999092e-01	-4.008583e-01	-4.024152e-01	-4.041363e-01	-4.064658e-01	-4.090116e-01	-4.113177e-01	-4.135948e-01	-4.153303e-01	-4.165172e-01	-4.176936e-01	-4.189980e-01	-4.202232e-01	-4.215355e-01	-4.238021e-01	-4.281041e-01	-4.354579e-01	-4.422131e-01	-4.480657e-01	-4.541728e-01	-4.573386e-01	-4.608579e-01	-4.657783e-01	-4.734933e-01	-4.821695e-01	-4.884723e-01	-4.945997e-01	-5.031079e-01	-5.130487e-01	-5.212935e-01	-5.308565e-01	-5.409089e-01	-5.497717e-01	-5.592430e-01	-5.703831e-01	-5.801225e-01	-5.896765e-01	-5.982694e-01	-6.062894e-01	-6.126847e-01	-6.189140e-01	-6.261921e-01	-6.318954e-01	-6.415367e-01	-6.485658e-01	-6.512643e-01	-6.558148e-01	-6.612016e-01	-6.626390e-01	-6.648562e-01	-6.694024e-01	-6.744250e-01	-6.757344e-01	-6.709843e-01	-6.667180e-01	-6.672618e-01	-6.670729e-01	-6.638732e-01	-6.576232e-01	-6.515352e-01	-6.458433e-01	-6.398145e-01	-6.335392e-01	-6.265560e-01	-6.190201e-01	-6.110723e-01	-6.001804e-01	-5.836107e-01	-5.675805e-01	-5.564365e-01	-5.426444e-01	-5.307385e-01	-5.236689e-01	-5.189892e-01	-5.075831e-01	-4.916749e-01	-4.880496e-01	-4.776522e-01	-4.552758e-01	-4.409302e-01	-4.301905e-01	-4.190719e-01	-3.992946e-01	-3.776781e-01	-3.606018e-01	-3.482681e-01	-3.338607e-01	-3.175711e-01	-2.998021e-01	-2.834120e-01	-2.650477e-01	-2.469174e-01	-2.288214e-01	-2.150122e-01	-2.010525e-01	-1.872183e-01	-1.725289e-01	-1.539533e-01	-1.425354e-01	-1.290100e-01	-1.042079e-01	-7.926597e-02	-6.083601e-02	-4.484114e-02	-2.668029e-02	-1.643295e-02	-1.149586e-03	1.930644e-02	3.796311e-02	5.448149e-02	6.188192e-02	7.160096e-02	8.407975e-02	9.833873e-02	1.180835e-01	1.378735e-01	1.516277e-01	1.622113e-01	1.722952e-01	1.879410e-01	2.012593e-01	2.149849e-01	2.279327e-01	2.365599e-01	2.450717e-01	2.603163e-01	2.752462e-01	2.871816e-01	2.993858e-01	3.098111e-01	3.218248e-01	3.326562e-01	3.428902e-01	3.526035e-01	3.622849e-01	3.719039e-01	3.801246e-01	3.886043e-01	3.975923e-01	4.112252e-01	4.212204e-01	4.303895e-01	4.393131e-01	4.457261e-01	4.538480e-01	4.635094e-01	4.716071e-01	4.806196e-01	4.875544e-01	4.937906e-01	5.015853e-01	5.090392e-01	5.159197e-01	5.237789e-01	5.316586e-01	5.373463e-01	5.437768e-01	5.492764e-01	5.547701e-01	5.593639e-01	5.655968e-01	5.711224e-01	5.757731e-01	5.791921e-01	5.840383e-01	5.882753e-01	5.925251e-01	5.967767e-01	5.998962e-01	6.028772e-01	6.062475e-01	6.088539e-01	6.115437e-01	6.143199e-01	6.166777e-01	6.184838e-01	6.204642e-01	6.223093e-01	6.237536e-01	6.248452e-01	6.259439e-01	6.268801e-01	6.274112e-01	6.279062e-01	6.284446e-01	6.290859e-01	5.423284e-01	5.338165e-01	5.253822e-01	5.171611e-01	5.075904e-01	4.956175e-01	4.841730e-01	4.755238e-01	4.658763e-01	4.560769e-01	4.455823e-01	4.356426e-01	4.237880e-01	4.098684e-01	3.967136e-01	3.849705e-01	3.709195e-01	3.596114e-01	3.487479e-01	3.360490e-01	3.246038e-01	3.143321e-01	3.032623e-01	2.927970e-01	2.808427e-01	2.648268e-01	2.471542e-01	2.318145e-01	2.164446e-01	2.019414e-01	1.879388e-01	1.755622e-01	1.605641e-01	1.444501e-01	1.308817e-01	1.175175e-01	1.026888e-01	8.719624e-02	7.071036e-02	5.228786e-02	4.016564e-02	2.849907e-02	1.413348e-02	2.358496e-03	-9.103773e-03	-2.534666e-02	-4.264961e-02	-6.205524e-02	-7.808372e-02	-9.099371e-02	-1.001246e-01	-1.056707e-01	-1.159796e-01	-1.315202e-01	-1.449090e-01	-1.574871e-01	-1.793999e-01	-2.054387e-01	-2.227533e-01	-2.310617e-01	-2.384419e-01	-2.473757e-01	-2.583280e-01	-2.751379e-01	-2.920649e-01	-3.083277e-01	-3.232488e-01	-3.391406e-01	-3.507048e-01	-3.685859e-01	-3.820530e-01	-3.856427e-01	-3.949989e-01	-4.123335e-01	-4.279821e-01	-4.381796e-01	-4.426003e-01	-4.504802e-01	-4.613572e-01	-4.703476e-01	-4.760664e-01	-4.798800e-01	-4.882528e-01	-5.027148e-01	-5.138214e-01	-5.209501e-01	-5.266227e-01	-5.286663e-01	-5.302640e-01	-5.350654e-01	-5.378878e-01	-5.417177e-01	-5.454634e-01	-5.486139e-01	-5.518851e-01	-5.492567e-01	-5.486246e-01	-5.525187e-01	-5.561756e-01	-5.562913e-01	-5.554305e-01	-5.531199e-01	-5.520123e-01	-5.529896e-01	-5.505287e-01	-5.479119e-01	-5.473531e-01	-5.447838e-01	-5.437651e-01	-5.418355e-01	-5.373467e-01	-5.340414e-01	-5.310380e-01	-5.273491e-01	-5.223008e-01	-5.166891e-01	-5.103448e-01	-5.048965e-01	-5.008170e-01	-4.958566e-01	-4.887739e-01	-4.828847e-01	-4.745195e-01	-4.659097e-01	-4.582196e-01	-4.512162e-01	-4.447253e-01	-4.371008e-01	-4.312153e-01	-4.261395e-01	-4.193970e-01	-4.119137e-01	-4.057095e-01	-4.012057e-01	-3.972985e-01	-3.925379e-01	-3.880503e-01	-3.842624e-01	-3.798078e-01	-3.739226e-01	-3.690066e-01	-3.645492e-01	-3.601099e-01	-3.564834e-01	-3.540289e-01	-3.519952e-01	-3.498635e-01	-3.484225e-01	-3.472039e-01	-3.457561e-01	-3.443426e-01	-3.429856e-01	-3.418053e-01	-3.403652e-01	-3.391113e-01	-3.376733e-01	-3.364163e-01	-3.355186e-01	-3.346499e-01	-3.338059e-01	-3.330534e-01	-3.324158e-01	-3.315950e-01	-3.307727e-01	-3.300493e-01	-3.292668e-01	-3.286811e-01	-3.278862e-01	-3.272037e-01	-3.265337e-01	-3.259708e-01	-3.254859e-01	-3.248928e-01	-3.242467e-01	-3.239263e-01	-3.235954e-01	-3.233281e-01	-3.230319e-01	-3.227221e-01	-3.222687e-01	-3.218075e-01	-3.210702e-01	-3.207102e-01	-3.204813e-01	-3.201423e-01	-3.199676e-01	-3.194060e-01	-3.190189e-01	-3.184916e-01	-3.179371e-01	-3.173968e-01	-3.169561e-01	-3.164726e-01	-3.161454e-01	-3.157102e-01	-3.154679e-01	-3.146740e-01	-3.141168e-01	-3.133521e-01	-3.126411e-01	-3.117085e-01	-3.110621e-01	-3.100910e-01	-3.090984e-01	-3.082715e-01	-3.073847e-01	-3.063320e-01	-3.053678e-01	-3.043620e-01	-3.036124e-01	-3.024118e-01	-3.012588e-01	-3.004290e-01	-2.992108e-01	-2.982757e-01	-2.975441e-01	-2.963650e-01	-2.953544e-01	-2.943852e-01	-2.933855e-01	-2.923219e-01	-2.913980e-01	-2.902371e-01	-2.894852e-01	-2.886632e-01	-2.879172e-01	-2.870599e-01	-2.864888e-01	-2.857923e-01	-2.852724e-01	-2.848531e-01	-2.844443e-01	-2.841148e-01	-2.839139e-01	-2.838155e-01	-2.837136e-01	-2.835789e-01	-2.835074e-01	-2.835575e-01	-2.837126e-01	-2.839219e-01	-2.841158e-01	-2.842706e-01	-2.844827e-01	-2.849149e-01	-2.855013e-01	-2.861804e-01	-2.866770e-01	-2.871821e-01	-2.878499e-01	-2.887715e-01	-2.896765e-01	-2.905581e-01	-2.915056e-01	-2.926429e-01	-2.936290e-01	-2.944